<?xml version="1.0" encoding="UTF-8"?>

<!-- generated on 2025-09-10 03:37:28 by Eclipse SUMO GUI Version 1.24.0
<sumoConfiguration xmlns:xsi="http://www.w3.org/2001/XMLSchema-instance" xsi:noNamespaceSchemaLocation="http://sumo.dlr.de/xsd/sumoConfiguration.xsd">

    <input>
        <net-file value="C:\Users\yashg\Desktop\SIH25\mumbai\sumo\osm.net.xml.gz"/>
        <route-files value="C:\Users\yashg\Desktop\SIH25\mumbai\sumo\osm.passenger.trips.xml"/>
        <additional-files value="C:\Users\yashg\Desktop\SIH25\mumbai\sumo\osm.poly.xml.gz,C:\Users\yashg\Desktop\SIH25\mumbai\sumo\output.add.xml"/>
    </input>

    <output>
        <tripinfo-output value="C:\Users\yashg\Desktop\SIH25\mumbai\sumo\tripinfos.xml"/>
        <statistic-output value="C:\Users\yashg\Desktop\SIH25\mumbai\sumo\stats.xml"/>
    </output>

    <time>
        <step-length value="1.0"/>
    </time>

    <processing>
        <ignore-route-errors value="true"/>
        <tls.actuated.jam-threshold value="30"/>
    </processing>

    <routing>
        <device.rerouting.adaptation-steps value="18"/>
        <device.rerouting.adaptation-interval value="10"/>
    </routing>

    <report>
        <verbose value="true"/>
        <no-warnings value="true"/>
        <duration-log.statistics value="true"/>
        <no-step-log value="true"/>
    </report>

    <traci_server>
        <remote-port value="58555"/>
    </traci_server>

    <gui_only>
        <gui-settings-file value="C:\Users\yashg\Desktop\SIH25\mumbai\sumo\osm.view.xml"/>
    </gui_only>

</sumoConfiguration>
-->

<meandata xmlns:xsi="http://www.w3.org/2001/XMLSchema-instance" xsi:noNamespaceSchemaLocation="http://sumo.dlr.de/xsd/meandata_file.xsd">
    <interval begin="0.00" end="2000.00" id="wizard_example">
        <edge id="-1016937165#1" sampledSeconds="0.00" departed="0" arrived="0" entered="0" left="0" laneChangedFrom="0" laneChangedTo="0"/>
        <edge id="-102400972#1" sampledSeconds="51.38" traveltime="12.60" overlapTraveltime="13.27" density="0.17" laneDensity="0.17" occupancy="0.08" waitingTime="0.00" timeLoss="6.12" speed="12.00" speedRelative="0.86" departed="4" arrived="0" entered="0" left="4" laneChangedFrom="0" laneChangedTo="0"/>
        <edge id="-1042704669" sampledSeconds="40.72" traveltime="6.04" overlapTraveltime="6.88" density="0.37" laneDensity="0.37" occupancy="0.16" waitingTime="0.00" timeLoss="12.54" speed="8.71" speedRelative="0.63" departed="1" arrived="0" entered="5" left="6" laneChangedFrom="0" laneChangedTo="0"/>
        <edge id="-1089386108#0" sampledSeconds="81.83" traveltime="2.22" overlapTraveltime="2.48" density="1.08" laneDensity="1.08" occupancy="0.47" waitingTime="0.00" timeLoss="18.54" speed="17.28" speedRelative="0.78" departed="0" arrived="0" entered="33" left="33" laneChangedFrom="0" laneChangedTo="0"/>
        <edge id="-1089386108#2" sampledSeconds="109.02" traveltime="3.26" overlapTraveltime="3.63" density="1.66" laneDensity="1.66" occupancy="0.71" waitingTime="0.00" timeLoss="57.48" speed="10.42" speedRelative="0.47" departed="0" arrived="0" entered="30" left="30" laneChangedFrom="0" laneChangedTo="0"/>
        <edge id="-1089386109#1" sampledSeconds="0.00" departed="0" arrived="0" entered="0" left="0" laneChangedFrom="0" laneChangedTo="0"/>
        <edge id="-1105484149" sampledSeconds="11.63" traveltime="3.74" overlapTraveltime="4.45" density="0.17" laneDensity="0.17" occupancy="0.08" waitingTime="0.00" timeLoss="4.08" speed="8.84" speedRelative="0.64" departed="3" arrived="0" entered="0" left="3" laneChangedFrom="0" laneChangedTo="0"/>
        <edge id="-1111931886#0" sampledSeconds="10.67" traveltime="2.87" overlapTraveltime="3.56" density="0.28" laneDensity="0.28" occupancy="0.11" waitingTime="0.00" timeLoss="3.97" speed="6.72" speedRelative="0.48" departed="0" arrived="0" entered="3" left="3" laneChangedFrom="0" laneChangedTo="0"/>
        <edge id="-1111931886#1" sampledSeconds="17.15" traveltime="8.44" overlapTraveltime="8.88" density="0.12" laneDensity="0.12" occupancy="0.06" waitingTime="0.00" timeLoss="4.95" speed="8.52" speedRelative="0.61" departed="1" arrived="0" entered="1" left="2" laneChangedFrom="0" laneChangedTo="0"/>
        <edge id="-1111931886#2" sampledSeconds="12.00" traveltime="11.18" overlapTraveltime="12.66" density="0.07" laneDensity="0.07" occupancy="0.03" waitingTime="0.00" timeLoss="4.70" speed="7.67" speedRelative="0.55" departed="1" arrived="0" entered="0" left="1" laneChangedFrom="0" laneChangedTo="0"/>
        <edge id="-1112181951" sampledSeconds="0.00" departed="0" arrived="0" entered="0" left="0" laneChangedFrom="0" laneChangedTo="0"/>
        <edge id="-1115130327" sampledSeconds="9.84" traveltime="2.91" overlapTraveltime="3.83" density="0.16" laneDensity="0.16" occupancy="0.07" waitingTime="0.00" timeLoss="1.22" speed="9.23" speedRelative="0.66" departed="3" arrived="0" entered="0" left="3" laneChangedFrom="0" laneChangedTo="0"/>
        <edge id="-1116442003#0" sampledSeconds="7.52" traveltime="6.84" overlapTraveltime="7.52" density="0.04" laneDensity="0.04" occupancy="0.02" waitingTime="0.00" timeLoss="1.53" speed="11.96" speedRelative="0.86" departed="0" arrived="0" entered="1" left="1" laneChangedFrom="0" laneChangedTo="0"/>
        <edge id="-1116442003#1" sampledSeconds="13.56" traveltime="4.31" overlapTraveltime="4.72" density="0.19" laneDensity="0.19" occupancy="0.09" waitingTime="0.00" timeLoss="5.76" speed="8.57" speedRelative="0.62" departed="1" arrived="2" entered="2" left="1" laneChangedFrom="0" laneChangedTo="0"/>
        <edge id="-1116442004" sampledSeconds="18.76" traveltime="6.01" overlapTraveltime="6.78" density="0.16" laneDensity="0.16" occupancy="0.07" waitingTime="0.00" timeLoss="4.09" speed="9.65" speedRelative="0.69" departed="3" arrived="0" entered="0" left="3" laneChangedFrom="0" laneChangedTo="0"/>
        <edge id="-1134587608#0" sampledSeconds="38.62" traveltime="4.14" overlapTraveltime="4.91" density="0.59" laneDensity="0.59" occupancy="0.26" waitingTime="0.00" timeLoss="13.39" speed="7.70" speedRelative="0.55" departed="1" arrived="1" entered="7" left="7" laneChangedFrom="0" laneChangedTo="0"/>
        <edge id="-1134587608#1" sampledSeconds="16.68" traveltime="2.97" overlapTraveltime="3.49" density="0.46" laneDensity="0.46" occupancy="0.18" waitingTime="0.00" timeLoss="8.64" speed="6.65" speedRelative="0.48" departed="1" arrived="1" entered="4" left="4" laneChangedFrom="0" laneChangedTo="0"/>
        <edge id="-1134587609#0" sampledSeconds="0.00" departed="0" arrived="0" entered="0" left="0" laneChangedFrom="0" laneChangedTo="0"/>
        <edge id="-1134587609#1" sampledSeconds="3.29" traveltime="3.15" overlapTraveltime="3.58" density="0.04" laneDensity="0.04" occupancy="0.02" waitingTime="0.00" timeLoss="0.29" speed="11.65" speedRelative="0.84" departed="0" arrived="1" entered="1" left="0" laneChangedFrom="0" laneChangedTo="0"/>
        <edge id="-1134587609#2" sampledSeconds="3.24" traveltime="2.82" overlapTraveltime="3.24" density="0.06" laneDensity="0.06" occupancy="0.02" waitingTime="0.00" timeLoss="0.57" speed="10.53" speedRelative="0.76" departed="0" arrived="0" entered="1" left="1" laneChangedFrom="0" laneChangedTo="0"/>
        <edge id="-1134587610" sampledSeconds="4.30" traveltime="3.98" overlapTraveltime="4.86" density="0.06" laneDensity="0.06" occupancy="0.02" waitingTime="0.00" timeLoss="0.93" speed="9.06" speedRelative="0.65" departed="1" arrived="0" entered="0" left="1" laneChangedFrom="0" laneChangedTo="0"/>
        <edge id="-1134587653" sampledSeconds="0.00" departed="0" arrived="0" entered="0" left="0" laneChangedFrom="0" laneChangedTo="0"/>
        <edge id="-1136967155#1" sampledSeconds="69.69" traveltime="11.08" overlapTraveltime="11.77" density="0.28" laneDensity="0.28" occupancy="0.13" waitingTime="0.00" timeLoss="11.78" speed="11.06" speedRelative="0.80" departed="2" arrived="0" entered="4" left="6" laneChangedFrom="0" laneChangedTo="0"/>
        <edge id="-1136967156" sampledSeconds="5.34" traveltime="5.07" overlapTraveltime="5.52" density="0.05" laneDensity="0.05" occupancy="0.02" waitingTime="0.00" timeLoss="0.75" speed="10.70" speedRelative="0.77" departed="0" arrived="0" entered="1" left="1" laneChangedFrom="0" laneChangedTo="0"/>
        <edge id="-1141867883" sampledSeconds="19.22" traveltime="0.41" overlapTraveltime="1.07" density="3.57" laneDensity="3.57" occupancy="0.62" waitingTime="0.00" timeLoss="8.19" speed="7.20" speedRelative="0.52" departed="0" arrived="0" entered="18" left="18" laneChangedFrom="0" laneChangedTo="0"/>
        <edge id="-1141867884" sampledSeconds="64.54" traveltime="4.12" overlapTraveltime="4.72" density="0.74" laneDensity="0.74" occupancy="0.33" waitingTime="0.00" timeLoss="31.21" speed="10.32" speedRelative="0.46" departed="3" arrived="0" entered="11" left="14" laneChangedFrom="0" laneChangedTo="0"/>
        <edge id="-1145066138" sampledSeconds="13.60" traveltime="1.51" overlapTraveltime="1.94" density="0.47" laneDensity="0.47" occupancy="0.17" waitingTime="0.00" timeLoss="8.91" speed="10.00" speedRelative="0.36" departed="0" arrived="0" entered="7" left="7" laneChangedFrom="0" laneChangedTo="0"/>
        <edge id="-1148393954#0" sampledSeconds="7.31" traveltime="0.07" overlapTraveltime="1.83" density="18.26" laneDensity="18.26" occupancy="0.35" waitingTime="0.00" timeLoss="2.32" speed="2.85" speedRelative="0.20" departed="0" arrived="0" entered="4" left="4" laneChangedFrom="0" laneChangedTo="0"/>
        <edge id="-1148393954#1" sampledSeconds="36.47" traveltime="6.85" overlapTraveltime="7.36" density="0.22" laneDensity="0.22" occupancy="0.10" waitingTime="0.00" timeLoss="5.14" speed="11.71" speedRelative="0.84" departed="0" arrived="1" entered="5" left="4" laneChangedFrom="0" laneChangedTo="0"/>
        <edge id="-1148423997" sampledSeconds="0.00" departed="0" arrived="0" entered="0" left="0" laneChangedFrom="0" laneChangedTo="0"/>
        <edge id="-1148423998" sampledSeconds="34.90" traveltime="1.94" overlapTraveltime="2.33" density="0.83" laneDensity="0.83" occupancy="0.33" waitingTime="0.00" timeLoss="20.61" speed="11.21" speedRelative="0.40" departed="0" arrived="0" entered="15" left="15" laneChangedFrom="0" laneChangedTo="0"/>
        <edge id="-1148488342#1" sampledSeconds="14.78" traveltime="0.07" overlapTraveltime="1.24" density="36.94" laneDensity="36.94" occupancy="0.71" waitingTime="0.00" timeLoss="3.74" speed="4.21" speedRelative="0.30" departed="1" arrived="0" entered="11" left="12" laneChangedFrom="0" laneChangedTo="0"/>
        <edge id="-1152596450" sampledSeconds="12.15" traveltime="5.70" overlapTraveltime="6.07" density="0.08" laneDensity="0.08" occupancy="0.04" waitingTime="0.00" timeLoss="0.54" speed="13.50" speedRelative="0.97" departed="0" arrived="0" entered="2" left="2" laneChangedFrom="0" laneChangedTo="0"/>
        <edge id="-1152598235" sampledSeconds="0.00" departed="0" arrived="0" entered="0" left="0" laneChangedFrom="0" laneChangedTo="0"/>
        <edge id="-1155708403#0" sampledSeconds="15.05" traveltime="6.80" overlapTraveltime="7.52" density="0.09" laneDensity="0.09" occupancy="0.04" waitingTime="0.00" timeLoss="3.37" speed="11.23" speedRelative="0.81" departed="0" arrived="0" entered="2" left="2" laneChangedFrom="0" laneChangedTo="0"/>
        <edge id="-1155708403#1" sampledSeconds="17.12" traveltime="8.43" overlapTraveltime="8.77" density="0.09" laneDensity="0.09" occupancy="0.04" waitingTime="0.00" timeLoss="3.55" speed="11.82" speedRelative="0.85" departed="1" arrived="0" entered="1" left="2" laneChangedFrom="0" laneChangedTo="0"/>
        <edge id="-1155708403#2" sampledSeconds="6.36" traveltime="6.02" overlapTraveltime="6.36" density="0.04" laneDensity="0.04" occupancy="0.02" waitingTime="0.00" timeLoss="0.25" speed="14.24" speedRelative="1.03" departed="0" arrived="0" entered="1" left="1" laneChangedFrom="0" laneChangedTo="0"/>
        <edge id="-1155708403#3" sampledSeconds="50.84" traveltime="9.44" overlapTraveltime="10.17" density="0.25" laneDensity="0.25" occupancy="0.12" waitingTime="0.00" timeLoss="13.33" speed="10.50" speedRelative="0.76" departed="0" arrived="0" entered="5" left="5" laneChangedFrom="0" laneChangedTo="0"/>
        <edge id="-1170043407#0" sampledSeconds="21.37" traveltime="9.82" overlapTraveltime="10.69" density="0.09" laneDensity="0.09" occupancy="0.04" waitingTime="0.00" timeLoss="3.49" speed="11.17" speedRelative="0.80" departed="0" arrived="0" entered="2" left="2" laneChangedFrom="0" laneChangedTo="0"/>
        <edge id="-1170043407#1" sampledSeconds="59.40" traveltime="7.75" overlapTraveltime="8.51" density="0.30" laneDensity="0.30" occupancy="0.14" waitingTime="0.00" timeLoss="6.47" speed="12.14" speedRelative="0.87" departed="0" arrived="1" entered="7" left="6" laneChangedFrom="0" laneChangedTo="0"/>
        <edge id="-1170043410#2" sampledSeconds="0.00" departed="0" arrived="0" entered="0" left="0" laneChangedFrom="0" laneChangedTo="0"/>
        <edge id="-1175311664" sampledSeconds="11.87" traveltime="5.56" overlapTraveltime="6.46" density="0.10" laneDensity="0.10" occupancy="0.05" waitingTime="0.00" timeLoss="2.29" speed="9.73" speedRelative="0.70" departed="2" arrived="0" entered="0" left="2" laneChangedFrom="0" laneChangedTo="0"/>
        <edge id="-1175311666" sampledSeconds="17.82" traveltime="8.43" overlapTraveltime="9.80" density="0.17" laneDensity="0.17" occupancy="0.08" waitingTime="5.00" timeLoss="9.50" speed="5.76" speedRelative="0.41" departed="2" arrived="0" entered="0" left="2" laneChangedFrom="0" laneChangedTo="0"/>
        <edge id="-1175312924" sampledSeconds="0.00" departed="0" arrived="0" entered="0" left="0" laneChangedFrom="0" laneChangedTo="0"/>
        <edge id="-1175536272#1" sampledSeconds="0.00" departed="0" arrived="0" entered="0" left="0" laneChangedFrom="0" laneChangedTo="0"/>
        <edge id="-1175898281" sampledSeconds="0.00" departed="0" arrived="0" entered="0" left="0" laneChangedFrom="0" laneChangedTo="0"/>
        <edge id="-1176119858" sampledSeconds="10.72" traveltime="4.77" overlapTraveltime="5.88" density="0.10" laneDensity="0.10" occupancy="0.05" waitingTime="0.00" timeLoss="2.01" speed="9.76" speedRelative="0.70" departed="2" arrived="0" entered="0" left="2" laneChangedFrom="0" laneChangedTo="0"/>
        <edge id="-1176121343#0" sampledSeconds="5.64" traveltime="5.03" overlapTraveltime="5.64" density="0.05" laneDensity="0.05" occupancy="0.02" waitingTime="0.00" timeLoss="1.34" speed="11.32" speedRelative="0.81" departed="0" arrived="0" entered="1" left="1" laneChangedFrom="0" laneChangedTo="0"/>
        <edge id="-1176121343#1" sampledSeconds="33.44" traveltime="4.95" overlapTraveltime="5.77" density="0.38" laneDensity="0.38" occupancy="0.17" waitingTime="0.00" timeLoss="11.14" speed="8.43" speedRelative="0.61" departed="1" arrived="1" entered="5" left="5" laneChangedFrom="0" laneChangedTo="0"/>
        <edge id="-1176164429" sampledSeconds="0.00" departed="0" arrived="0" entered="0" left="0" laneChangedFrom="0" laneChangedTo="0"/>
        <edge id="-1176164430" sampledSeconds="24.31" traveltime="24.00" overlapTraveltime="24.73" density="0.04" laneDensity="0.04" occupancy="0.02" waitingTime="0.00" timeLoss="5.38" speed="12.00" speedRelative="0.86" departed="1" arrived="0" entered="0" left="1" laneChangedFrom="0" laneChangedTo="0"/>
        <edge id="-1176206159#0" sampledSeconds="4.28" traveltime="1.54" overlapTraveltime="2.14" density="0.13" laneDensity="0.13" occupancy="0.05" waitingTime="0.00" timeLoss="0.48" speed="10.26" speedRelative="0.74" departed="0" arrived="1" entered="2" left="1" laneChangedFrom="0" laneChangedTo="0"/>
        <edge id="-1176206159#1" sampledSeconds="12.45" traveltime="2.68" overlapTraveltime="3.27" density="0.30" laneDensity="0.30" occupancy="0.12" waitingTime="0.00" timeLoss="4.23" speed="7.93" speedRelative="0.57" departed="1" arrived="1" entered="3" left="3" laneChangedFrom="0" laneChangedTo="0"/>
        <edge id="-1176206159#2" sampledSeconds="21.82" traveltime="4.66" overlapTraveltime="5.46" density="0.32" laneDensity="0.32" occupancy="0.13" waitingTime="0.00" timeLoss="8.60" speed="7.14" speedRelative="0.51" departed="0" arrived="0" entered="4" left="4" laneChangedFrom="0" laneChangedTo="0"/>
        <edge id="-1187980673" sampledSeconds="15.92" traveltime="3.62" overlapTraveltime="4.50" density="0.20" laneDensity="0.20" occupancy="0.09" waitingTime="0.00" timeLoss="3.56" speed="9.81" speedRelative="0.71" departed="4" arrived="0" entered="0" left="4" laneChangedFrom="0" laneChangedTo="0"/>
        <edge id="-1188568160" sampledSeconds="14.99" traveltime="7.51" overlapTraveltime="7.90" density="0.08" laneDensity="0.08" occupancy="0.04" waitingTime="0.00" timeLoss="0.88" speed="12.49" speedRelative="0.90" departed="2" arrived="0" entered="0" left="2" laneChangedFrom="0" laneChangedTo="0"/>
        <edge id="-1188574604" sampledSeconds="99.16" traveltime="25.10" overlapTraveltime="26.85" density="0.88" laneDensity="0.88" occupancy="0.42" waitingTime="0.00" timeLoss="22.86" speed="2.29" speedRelative="0.82" departed="2" arrived="2" entered="2" left="2" laneChangedFrom="0" laneChangedTo="0"/>
        <edge id="-1188640558" sampledSeconds="0.00" departed="0" arrived="0" entered="0" left="0" laneChangedFrom="0" laneChangedTo="0"/>
        <edge id="-1189082259#0" sampledSeconds="7.85" traveltime="0.03" overlapTraveltime="1.07" density="28.03" laneDensity="28.03" occupancy="0.38" waitingTime="0.00" timeLoss="2.90" speed="4.80" speedRelative="0.35" departed="1" arrived="3" entered="8" left="6" laneChangedFrom="0" laneChangedTo="0"/>
        <edge id="-1189082259#1" sampledSeconds="5.50" traveltime="5.18" overlapTraveltime="5.59" density="0.05" laneDensity="0.05" occupancy="0.02" waitingTime="0.00" timeLoss="1.19" speed="10.81" speedRelative="0.78" departed="0" arrived="1" entered="1" left="0" laneChangedFrom="0" laneChangedTo="0"/>
        <edge id="-1189082259#2" sampledSeconds="7.85" traveltime="0.04" overlapTraveltime="1.13" density="19.62" laneDensity="19.62" occupancy="0.38" waitingTime="0.00" timeLoss="2.42" speed="4.61" speedRelative="0.33" departed="1" arrived="0" entered="6" left="7" laneChangedFrom="0" laneChangedTo="0"/>
        <edge id="-1189090171#0" sampledSeconds="8.42" traveltime="1.71" overlapTraveltime="2.11" density="0.24" laneDensity="0.24" occupancy="0.09" waitingTime="0.00" timeLoss="1.79" speed="10.54" speedRelative="0.76" departed="0" arrived="4" entered="4" left="0" laneChangedFrom="0" laneChangedTo="0"/>
        <edge id="-1189090171#1" sampledSeconds="22.47" traveltime="3.95" overlapTraveltime="4.49" density="0.31" laneDensity="0.31" occupancy="0.13" waitingTime="0.00" timeLoss="6.10" speed="9.15" speedRelative="0.66" departed="0" arrived="1" entered="5" left="4" laneChangedFrom="0" laneChangedTo="0"/>
        <edge id="-1189090291" sampledSeconds="10.69" traveltime="4.76" overlapTraveltime="5.59" density="0.14" laneDensity="0.14" occupancy="0.06" waitingTime="0.00" timeLoss="3.82" speed="7.55" speedRelative="0.54" departed="0" arrived="1" entered="2" left="1" laneChangedFrom="0" laneChangedTo="0"/>
        <edge id="-1189092262" sampledSeconds="17.96" traveltime="5.84" overlapTraveltime="6.45" density="0.14" laneDensity="0.14" occupancy="0.06" waitingTime="0.00" timeLoss="3.31" speed="10.99" speedRelative="0.79" departed="3" arrived="0" entered="0" left="3" laneChangedFrom="0" laneChangedTo="0"/>
        <edge id="-1189350814" sampledSeconds="12.54" traveltime="3.86" overlapTraveltime="4.80" density="0.18" laneDensity="0.18" occupancy="0.08" waitingTime="0.00" timeLoss="3.78" speed="8.28" speedRelative="0.60" departed="3" arrived="0" entered="0" left="3" laneChangedFrom="0" laneChangedTo="0"/>
        <edge id="-1189557028" sampledSeconds="8.83" traveltime="4.02" overlapTraveltime="4.42" density="0.09" laneDensity="0.09" occupancy="0.04" waitingTime="0.00" timeLoss="0.98" speed="11.95" speedRelative="0.86" departed="0" arrived="2" entered="2" left="0" laneChangedFrom="0" laneChangedTo="0"/>
        <edge id="-1190952322" sampledSeconds="30.79" traveltime="7.32" overlapTraveltime="8.20" density="0.20" laneDensity="0.20" occupancy="0.09" waitingTime="0.00" timeLoss="5.15" speed="10.13" speedRelative="0.73" departed="4" arrived="0" entered="0" left="4" laneChangedFrom="0" laneChangedTo="0"/>
        <edge id="-1191340050" sampledSeconds="22.27" traveltime="9.71" overlapTraveltime="11.46" density="0.13" laneDensity="0.13" occupancy="0.06" waitingTime="0.00" timeLoss="10.44" speed="7.94" speedRelative="0.57" departed="1" arrived="1" entered="1" left="1" laneChangedFrom="0" laneChangedTo="0"/>
        <edge id="-1192570618" sampledSeconds="0.00" departed="0" arrived="0" entered="0" left="0" laneChangedFrom="0" laneChangedTo="0"/>
        <edge id="-1192570619" sampledSeconds="6.25" traveltime="5.92" overlapTraveltime="6.71" density="0.04" laneDensity="0.04" occupancy="0.02" waitingTime="0.00" timeLoss="1.49" speed="11.15" speedRelative="0.80" departed="1" arrived="0" entered="0" left="1" laneChangedFrom="0" laneChangedTo="0"/>
        <edge id="-1201664576" sampledSeconds="13.03" traveltime="14.23" overlapTraveltime="15.55" density="0.25" laneDensity="0.25" occupancy="0.12" waitingTime="0.00" timeLoss="3.37" speed="2.02" speedRelative="0.73" departed="1" arrived="0" entered="0" left="1" laneChangedFrom="0" laneChangedTo="0"/>
        <edge id="-1216688562" sampledSeconds="0.00" departed="0" arrived="0" entered="0" left="0" laneChangedFrom="0" laneChangedTo="0"/>
        <edge id="-1219095052" sampledSeconds="9.02" traveltime="4.33" overlapTraveltime="5.02" density="0.10" laneDensity="0.10" occupancy="0.05" waitingTime="0.00" timeLoss="2.36" speed="9.97" speedRelative="0.72" departed="2" arrived="0" entered="0" left="2" laneChangedFrom="0" laneChangedTo="0"/>
        <edge id="-1236536845" sampledSeconds="21.07" traveltime="3.26" overlapTraveltime="3.99" density="0.28" laneDensity="0.28" occupancy="0.13" waitingTime="0.00" timeLoss="3.38" speed="10.57" speedRelative="0.76" departed="6" arrived="0" entered="0" left="6" laneChangedFrom="0" laneChangedTo="0"/>
        <edge id="-125287939" sampledSeconds="19.86" traveltime="9.69" overlapTraveltime="9.93" density="0.06" laneDensity="0.06" occupancy="0.03" waitingTime="0.00" timeLoss="5.63" speed="16.71" speedRelative="0.75" departed="0" arrived="0" entered="2" left="2" laneChangedFrom="0" laneChangedTo="0"/>
        <edge id="-1253903377#0" sampledSeconds="23.07" traveltime="11.37" overlapTraveltime="11.78" density="0.10" laneDensity="0.10" occupancy="0.05" waitingTime="0.00" timeLoss="4.98" speed="10.32" speedRelative="0.74" departed="1" arrived="0" entered="1" left="2" laneChangedFrom="0" laneChangedTo="0"/>
        <edge id="-1253903377#1" sampledSeconds="40.86" traveltime="19.85" overlapTraveltime="20.66" density="0.09" laneDensity="0.09" occupancy="0.04" waitingTime="0.00" timeLoss="7.41" speed="11.00" speedRelative="0.79" departed="1" arrived="0" entered="1" left="2" laneChangedFrom="0" laneChangedTo="0"/>
        <edge id="-1253903377#2" sampledSeconds="34.06" traveltime="8.21" overlapTraveltime="8.92" density="0.16" laneDensity="0.16" occupancy="0.08" waitingTime="0.00" timeLoss="2.20" speed="12.65" speedRelative="0.91" departed="4" arrived="0" entered="0" left="4" laneChangedFrom="0" laneChangedTo="0"/>
        <edge id="-1253903378" sampledSeconds="18.23" traveltime="8.19" overlapTraveltime="9.11" density="0.10" laneDensity="0.10" occupancy="0.05" waitingTime="0.00" timeLoss="2.56" speed="10.39" speedRelative="0.75" departed="0" arrived="0" entered="2" left="2" laneChangedFrom="0" laneChangedTo="0"/>
        <edge id="-1253924952#1" sampledSeconds="12.33" traveltime="6.00" overlapTraveltime="6.22" density="0.05" laneDensity="0.05" occupancy="0.02" waitingTime="0.00" timeLoss="0.57" speed="21.81" speedRelative="0.98" departed="0" arrived="2" entered="2" left="0" laneChangedFrom="0" laneChangedTo="0"/>
        <edge id="-1253924954#0" sampledSeconds="195.43" traveltime="4.04" overlapTraveltime="4.34" density="1.34" laneDensity="1.34" occupancy="0.62" waitingTime="0.00" timeLoss="30.65" speed="17.94" speedRelative="0.81" departed="0" arrived="1" entered="45" left="44" laneChangedFrom="0" laneChangedTo="0"/>
        <edge id="-1253924954#1" sampledSeconds="94.36" traveltime="1.51" overlapTraveltime="1.93" density="2.76" laneDensity="2.76" occupancy="1.07" waitingTime="0.00" timeLoss="42.72" speed="11.43" speedRelative="0.51" departed="0" arrived="1" entered="49" left="48" laneChangedFrom="0" laneChangedTo="0"/>
        <edge id="-1303193816#0" sampledSeconds="57.63" traveltime="8.92" overlapTraveltime="9.94" density="0.41" laneDensity="0.41" occupancy="0.19" waitingTime="0.00" timeLoss="21.15" speed="7.65" speedRelative="0.55" departed="3" arrived="0" entered="3" left="6" laneChangedFrom="0" laneChangedTo="0"/>
        <edge id="-1303193816#1" sampledSeconds="36.31" traveltime="4.78" overlapTraveltime="5.32" density="0.39" laneDensity="0.39" occupancy="0.18" waitingTime="0.00" timeLoss="8.80" speed="9.60" speedRelative="0.69" departed="1" arrived="2" entered="6" left="5" laneChangedFrom="0" laneChangedTo="0"/>
        <edge id="-1303246109" sampledSeconds="12.19" traveltime="0.34" overlapTraveltime="1.56" density="3.58" laneDensity="3.58" occupancy="0.48" waitingTime="0.00" timeLoss="4.54" speed="4.28" speedRelative="0.31" departed="3" arrived="1" entered="6" left="8" laneChangedFrom="0" laneChangedTo="0"/>
        <edge id="-1303253945#0" sampledSeconds="3.36" traveltime="1.36" overlapTraveltime="1.79" density="0.12" laneDensity="0.12" occupancy="0.05" waitingTime="0.00" timeLoss="1.03" speed="10.41" speedRelative="0.75" departed="0" arrived="2" entered="2" left="0" laneChangedFrom="0" laneChangedTo="0"/>
        <edge id="-1303253945#1" sampledSeconds="0.00" departed="0" arrived="0" entered="0" left="0" laneChangedFrom="0" laneChangedTo="0"/>
        <edge id="-1303253946" sampledSeconds="7.38" traveltime="1.53" overlapTraveltime="2.04" density="0.27" laneDensity="0.27" occupancy="0.10" waitingTime="0.00" timeLoss="2.41" speed="9.09" speedRelative="0.65" departed="0" arrived="4" entered="4" left="0" laneChangedFrom="0" laneChangedTo="0"/>
        <edge id="-1303253947" sampledSeconds="0.00" departed="0" arrived="0" entered="0" left="0" laneChangedFrom="0" laneChangedTo="0"/>
        <edge id="-1303253948" sampledSeconds="0.00" departed="0" arrived="0" entered="0" left="0" laneChangedFrom="0" laneChangedTo="0"/>
        <edge id="-1303253949" sampledSeconds="0.00" departed="0" arrived="0" entered="0" left="0" laneChangedFrom="0" laneChangedTo="0"/>
        <edge id="-1303269511" sampledSeconds="5.28" traveltime="4.93" overlapTraveltime="5.28" density="0.04" laneDensity="0.04" occupancy="0.02" waitingTime="0.00" timeLoss="1.06" speed="12.36" speedRelative="0.89" departed="0" arrived="1" entered="1" left="0" laneChangedFrom="0" laneChangedTo="0"/>
        <edge id="-1303271877" sampledSeconds="10.93" traveltime="10.92" overlapTraveltime="11.62" density="0.07" laneDensity="0.07" occupancy="0.03" waitingTime="0.00" timeLoss="5.47" speed="7.37" speedRelative="0.53" departed="1" arrived="0" entered="0" left="1" laneChangedFrom="0" laneChangedTo="0"/>
        <edge id="-1304375949#0" sampledSeconds="0.85" traveltime="0.03" overlapTraveltime="0.85" density="2.14" laneDensity="2.14" occupancy="0.04" waitingTime="0.00" timeLoss="0.12" speed="6.09" speedRelative="0.44" departed="0" arrived="0" entered="1" left="1" laneChangedFrom="0" laneChangedTo="0"/>
        <edge id="-1304375949#1" sampledSeconds="5.84" traveltime="6.16" overlapTraveltime="6.58" density="0.07" laneDensity="0.07" occupancy="0.03" waitingTime="0.00" timeLoss="3.28" speed="6.88" speedRelative="0.50" departed="1" arrived="0" entered="0" left="1" laneChangedFrom="0" laneChangedTo="0"/>
        <edge id="-1304375949#2" sampledSeconds="0.00" departed="0" arrived="0" entered="0" left="0" laneChangedFrom="0" laneChangedTo="0"/>
        <edge id="-1304375950" sampledSeconds="0.00" departed="0" arrived="0" entered="0" left="0" laneChangedFrom="0" laneChangedTo="0"/>
        <edge id="-1304384010" sampledSeconds="10.73" traveltime="4.40" overlapTraveltime="5.36" density="0.15" laneDensity="0.15" occupancy="0.06" waitingTime="0.00" timeLoss="3.44" speed="7.54" speedRelative="0.54" departed="0" arrived="0" entered="2" left="2" laneChangedFrom="0" laneChangedTo="0"/>
        <edge id="-1304384735" sampledSeconds="0.00" departed="0" arrived="0" entered="0" left="0" laneChangedFrom="0" laneChangedTo="0"/>
        <edge id="-1304442753#1" sampledSeconds="1.41" traveltime="1.64" overlapTraveltime="2.44" density="0.10" laneDensity="0.10" occupancy="0.03" waitingTime="0.00" timeLoss="0.59" speed="4.95" speedRelative="0.36" departed="1" arrived="0" entered="0" left="1" laneChangedFrom="0" laneChangedTo="0"/>
        <edge id="-1304442754" sampledSeconds="17.24" traveltime="5.42" overlapTraveltime="6.31" density="0.26" laneDensity="0.26" occupancy="0.12" waitingTime="0.00" timeLoss="8.09" speed="5.99" speedRelative="0.43" departed="2" arrived="1" entered="1" left="2" laneChangedFrom="0" laneChangedTo="0"/>
        <edge id="-1317387781" sampledSeconds="22.58" traveltime="2.96" overlapTraveltime="3.74" density="0.35" laneDensity="0.35" occupancy="0.16" waitingTime="0.00" timeLoss="2.90" speed="9.99" speedRelative="0.72" departed="7" arrived="0" entered="0" left="7" laneChangedFrom="0" laneChangedTo="0"/>
        <edge id="-1317387793" sampledSeconds="15.68" traveltime="3.05" overlapTraveltime="3.47" density="0.29" laneDensity="0.29" occupancy="0.12" waitingTime="0.00" timeLoss="4.52" speed="9.19" speedRelative="0.66" departed="3" arrived="0" entered="2" left="5" laneChangedFrom="0" laneChangedTo="0"/>