<?xml version="1.0" encoding="UTF-8"?>

<!-- generated on 2025-09-10 03:37:28 by Eclipse SUMO GUI Version 1.24.0
<sumoConfiguration xmlns:xsi="http://www.w3.org/2001/XMLSchema-instance" xsi:noNamespaceSchemaLocation="http://sumo.dlr.de/xsd/sumoConfiguration.xsd">

    <input>
        <net-file value="C:\Users\yashg\Desktop\SIH25\mumbai\sumo\osm.net.xml.gz"/>
        <route-files value="C:\Users\yashg\Desktop\SIH25\mumbai\sumo\osm.passenger.trips.xml"/>
        <additional-files value="C:\Users\yashg\Desktop\SIH25\mumbai\sumo\osm.poly.xml.gz,C:\Users\yashg\Desktop\SIH25\mumbai\sumo\output.add.xml"/>
    </input>

    <output>
        <tripinfo-output value="C:\Users\yashg\Desktop\SIH25\mumbai\sumo\tripinfos.xml"/>
        <statistic-output value="C:\Users\yashg\Desktop\SIH25\mumbai\sumo\stats.xml"/>
    </output>

    <time>
        <step-length value="1.0"/>
    </time>

    <processing>
        <ignore-route-errors value="true"/>
        <tls.actuated.jam-threshold value="30"/>
    </processing>

    <routing>
        <device.rerouting.adaptation-steps value="18"/>
        <device.rerouting.adaptation-interval value="10"/>
    </routing>

    <report>
        <verbose value="true"/>
        <no-warnings value="true"/>
        <duration-log.statistics value="true"/>
        <no-step-log value="true"/>
    </report>

    <traci_server>
        <remote-port value="58555"/>
    </traci_server>

    <gui_only>
        <gui-settings-file value="C:\Users\yashg\Desktop\SIH25\mumbai\sumo\osm.view.xml"/>
    </gui_only>

</sumoConfiguration>
-->

<tripinfos xmlns:xsi="http://www.w3.org/2001/XMLSchema-instance" xsi:noNamespaceSchemaLocation="http://sumo.dlr.de/xsd/tripinfo_file.xsd">
    <tripinfo id="veh4" depart="10.00" departLane="-1141867884_0" departPos="5.10" departSpeed="0.00" departDelay="0.05" arrival="71.00" arrivalLane="-39530455_0" arrivalPos="191.64" arrivalSpeed="13.42" duration="61.00" routeLength="676.61" waitingTime="0.00" waitingCount="0" stopTime="0.00" timeLoss="16.35" rerouteNo="1" devices="tripinfo_veh4 routing_veh4" vType="veh_passenger" speedFactor="1.03" vaporized=""/>
    <tripinfo id="veh1" depart="3.00" departLane="31215590#2_0" departPos="5.10" departSpeed="0.00" departDelay="0.51" arrival="113.00" arrivalLane="31152970#2_0" arrivalPos="131.69" arrivalSpeed="19.61" duration="110.00" routeLength="1365.37" waitingTime="0.00" waitingCount="0" stopTime="0.00" timeLoss="18.27" rerouteNo="1" devices="tripinfo_veh1 routing_veh1" vType="veh_passenger" speedFactor="0.94" vaporized=""/>
    <tripinfo id="veh2" depart="5.00" departLane="1011936102#0_0" departPos="5.10" departSpeed="28.07" departDelay="0.02" arrival="119.00" arrivalLane="-1189090171#0_0" arrivalPos="17.28" arrivalSpeed="13.42" duration="114.00" routeLength="1457.93" waitingTime="0.00" waitingCount="0" stopTime="0.00" timeLoss="17.53" rerouteNo="1" devices="tripinfo_veh2 routing_veh2" vType="veh_passenger" speedFactor="1.01" vaporized=""/>
    <tripinfo id="veh12" depart="30.00" departLane="437410114_0" departPos="5.10" departSpeed="14.54" departDelay="0.15" arrival="139.00" arrivalLane="186760577#0_0" arrivalPos="113.69" arrivalSpeed="13.85" duration="109.00" routeLength="1646.44" waitingTime="0.00" waitingCount="0" stopTime="0.00" timeLoss="16.21" rerouteNo="1" devices="tripinfo_veh12 routing_veh12" vType="veh_passenger" speedFactor="1.05" vaporized=""/>
    <tripinfo id="veh10" depart="25.00" departLane="-553214386_0" departPos="5.10" departSpeed="0.00" departDelay="0.12" arrival="144.00" arrivalLane="1421512382_0" arrivalPos="62.45" arrivalSpeed="13.93" duration="119.00" routeLength="1493.18" waitingTime="23.00" waitingCount="1" stopTime="0.00" timeLoss="58.99" rerouteNo="1" devices="tripinfo_veh10 routing_veh10" vType="veh_passenger" speedFactor="1.09" vaporized=""/>
    <tripinfo id="veh3" depart="8.00" departLane="-22859525#5_0" departPos="5.10" departSpeed="24.06" departDelay="0.54" arrival="147.00" arrivalLane="1304384735_0" arrivalPos="17.83" arrivalSpeed="14.91" duration="139.00" routeLength="2583.15" waitingTime="0.00" waitingCount="0" stopTime="0.00" timeLoss="17.90" rerouteNo="1" devices="tripinfo_veh3 routing_veh3" vType="veh_passenger" speedFactor="1.08" vaporized=""/>
    <tripinfo id="veh19" depart="48.00" departLane="-186760577#2_0" departPos="5.10" departSpeed="0.00" departDelay="0.73" arrival="155.00" arrivalLane="1141867890#0_0" arrivalPos="40.38" arrivalSpeed="13.09" duration="107.00" routeLength="1455.41" waitingTime="1.00" waitingCount="1" stopTime="0.00" timeLoss="38.47" rerouteNo="1" devices="tripinfo_veh19 routing_veh19" vType="veh_passenger" speedFactor="1.16" vaporized=""/>
    <tripinfo id="veh11" depart="28.00" departLane="430599323#0_0" departPos="5.10" departSpeed="0.00" departDelay="0.63" arrival="159.00" arrivalLane="22859353#1_0" arrivalPos="75.02" arrivalSpeed="22.14" duration="131.00" routeLength="1559.19" waitingTime="17.00" waitingCount="1" stopTime="0.00" timeLoss="61.12" rerouteNo="1" devices="tripinfo_veh11 routing_veh11" vType="veh_passenger" speedFactor="1.03" vaporized=""/>
    <tripinfo id="veh13" depart="33.00" departLane="31193694#3_0" departPos="5.10" departSpeed="0.00" departDelay="0.66" arrival="162.00" arrivalLane="-1303246109_0" arrivalPos="1.70" arrivalSpeed="5.17" duration="129.00" routeLength="1179.24" waitingTime="33.00" waitingCount="2" stopTime="0.00" timeLoss="71.53" rerouteNo="1" devices="tripinfo_veh13 routing_veh13" vType="veh_passenger" speedFactor="1.12" vaporized=""/>
    <tripinfo id="veh53" depart="132.00" departLane="-31184695#2_0" departPos="5.10" departSpeed="0.00" departDelay="0.15" arrival="170.00" arrivalLane="31152925_0" arrivalPos="73.78" arrivalSpeed="26.75" duration="38.00" routeLength="461.48" waitingTime="0.00" waitingCount="0" stopTime="0.00" timeLoss="13.83" rerouteNo="1" devices="tripinfo_veh53 routing_veh53" vType="veh_passenger" speedFactor="1.10" vaporized=""/>
    <tripinfo id="veh44" depart="110.00" departLane="1140834844#3_0" departPos="5.10" departSpeed="0.00" departDelay="0.54" arrival="172.00" arrivalLane="1421512373_0" arrivalPos="13.76" arrivalSpeed="2.81" duration="62.00" routeLength="1013.14" waitingTime="0.00" waitingCount="0" stopTime="0.00" timeLoss="15.03" rerouteNo="1" devices="tripinfo_veh44 routing_veh44" vType="veh_passenger" speedFactor="1.04" vaporized=""/>
    <tripinfo id="veh17" depart="43.00" departLane="-31217240#1_0" departPos="5.10" departSpeed="3.93" departDelay="0.71" arrival="173.00" arrivalLane="553669831#0_0" arrivalPos="176.87" arrivalSpeed="24.93" duration="130.00" routeLength="1023.07" waitingTime="5.00" waitingCount="1" stopTime="0.00" timeLoss="28.86" rerouteNo="1" devices="tripinfo_veh17 routing_veh17" vType="veh_passenger" speedFactor="0.94" vaporized=""/>
    <tripinfo id="veh30" depart="75.00" departLane="31151962#2_0" departPos="5.10" departSpeed="0.00" departDelay="0.37" arrival="173.00" arrivalLane="1349519282_0" arrivalPos="24.09" arrivalSpeed="13.31" duration="98.00" routeLength="1209.69" waitingTime="4.00" waitingCount="2" stopTime="0.00" timeLoss="44.47" rerouteNo="1" devices="tripinfo_veh30 routing_veh30" vType="veh_passenger" speedFactor="1.18" vaporized=""/>
    <tripinfo id="veh31" depart="78.00" departLane="-1317387793_0" departPos="5.10" departSpeed="16.03" departDelay="0.88" arrival="174.00" arrivalLane="1201664576_0" arrivalPos="26.45" arrivalSpeed="2.00" duration="96.00" routeLength="1213.71" waitingTime="0.00" waitingCount="0" stopTime="0.00" timeLoss="33.64" rerouteNo="1" devices="tripinfo_veh31 routing_veh31" vType="veh_passenger" speedFactor="1.15" vaporized=""/>
    <tripinfo id="veh16" depart="40.00" departLane="-49051151_0" departPos="5.10" departSpeed="0.00" departDelay="0.20" arrival="177.00" arrivalLane="-423781373#4_0" arrivalPos="160.01" arrivalSpeed="11.94" duration="137.00" routeLength="1499.60" waitingTime="0.00" waitingCount="0" stopTime="0.00" timeLoss="22.31" rerouteNo="1" devices="tripinfo_veh16 routing_veh16" vType="veh_passenger" speedFactor="0.88" vaporized=""/>
    <tripinfo id="veh8" depart="20.00" departLane="39480556#0_0" departPos="5.10" departSpeed="20.84" departDelay="0.10" arrival="185.00" arrivalLane="31217190_0" arrivalPos="134.53" arrivalSpeed="12.78" duration="165.00" routeLength="2167.62" waitingTime="14.00" waitingCount="1" stopTime="0.00" timeLoss="56.19" rerouteNo="1" devices="tripinfo_veh8 routing_veh8" vType="veh_passenger" speedFactor="0.94" vaporized=""/>
    <tripinfo id="veh51" depart="127.00" departLane="-1192570619_0" departPos="5.10" departSpeed="16.24" departDelay="0.12" arrival="185.00" arrivalLane="22859505_0" arrivalPos="99.09" arrivalSpeed="15.47" duration="58.00" routeLength="812.95" waitingTime="0.00" waitingCount="0" stopTime="0.00" timeLoss="11.90" rerouteNo="1" devices="tripinfo_veh51 routing_veh51" vType="veh_passenger" speedFactor="1.17" vaporized=""/>
    <tripinfo id="veh55" depart="137.00" departLane="1140834844#1_0" departPos="5.10" departSpeed="0.00" departDelay="0.17" arrival="185.00" arrivalLane="376993355_0" arrivalPos="125.10" arrivalSpeed="13.56" duration="48.00" routeLength="521.79" waitingTime="0.00" waitingCount="0" stopTime="0.00" timeLoss="15.23" rerouteNo="1" devices="tripinfo_veh55 routing_veh55" vType="veh_passenger" speedFactor="1.00" vaporized=""/>
    <tripinfo id="veh6" depart="15.00" departLane="39480556#0_0" departPos="5.10" departSpeed="23.24" departDelay="0.07" arrival="188.00" arrivalLane="31194648_0" arrivalPos="124.39" arrivalSpeed="13.29" duration="173.00" routeLength="2072.76" waitingTime="21.00" waitingCount="2" stopTime="0.00" timeLoss="63.83" rerouteNo="1" devices="tripinfo_veh6 routing_veh6" vType="veh_passenger" speedFactor="1.05" vaporized=""/>
    <tripinfo id="veh0" depart="0.00" departLane="215382433_0" departPos="5.10" departSpeed="2.95" departDelay="0.00" arrival="191.00" arrivalLane="-1176206159#1_0" arrivalPos="20.97" arrivalSpeed="13.27" duration="191.00" routeLength="1846.16" waitingTime="20.00" waitingCount="2" stopTime="0.00" timeLoss="68.80" rerouteNo="1" devices="tripinfo_veh0 routing_veh0" vType="veh_passenger" speedFactor="1.06" vaporized=""/>
    <tripinfo id="veh28" depart="70.00" departLane="929525132#0_0" departPos="5.10" departSpeed="15.72" departDelay="0.34" arrival="196.00" arrivalLane="1343922581#3_0" arrivalPos="69.13" arrivalSpeed="30.58" duration="126.00" routeLength="1548.28" waitingTime="17.00" waitingCount="2" stopTime="0.00" timeLoss="64.52" rerouteNo="1" devices="tripinfo_veh28 routing_veh28" vType="veh_passenger" speedFactor="1.13" vaporized=""/>
    <tripinfo id="veh35" depart="88.00" departLane="186764011#3_0" departPos="5.10" departSpeed="0.00" departDelay="0.93" arrival="200.00" arrivalLane="-31217188_0" arrivalPos="90.96" arrivalSpeed="13.58" duration="112.00" routeLength="900.17" waitingTime="25.00" waitingCount="1" stopTime="0.00" timeLoss="56.33" rerouteNo="1" devices="tripinfo_veh35 routing_veh35" vType="veh_passenger" speedFactor="1.02" vaporized=""/>
    <tripinfo id="veh46" depart="115.00" departLane="1011936102#0_0" departPos="5.10" departSpeed="27.71" departDelay="0.56" arrival="201.00" arrivalLane="-423781373#4_0" arrivalPos="160.01" arrivalSpeed="13.11" duration="86.00" routeLength="1166.78" waitingTime="0.00" waitingCount="0" stopTime="0.00" timeLoss="11.24" rerouteNo="1" devices="tripinfo_veh46 routing_veh46" vType="veh_passenger" speedFactor="1.00" vaporized=""/>
    <tripinfo id="veh26" depart="65.00" departLane="-1317387793_0" departPos="5.10" departSpeed="12.74" departDelay="0.32" arrival="203.00" arrivalLane="22859469_0" arrivalPos="153.77" arrivalSpeed="12.29" duration="138.00" routeLength="1738.24" waitingTime="4.00" waitingCount="1" stopTime="0.00" timeLoss="44.79" rerouteNo="1" devices="tripinfo_veh26 routing_veh26" vType="veh_passenger" speedFactor="0.92" vaporized=""/>
    <tripinfo id="veh58" depart="145.00" departLane="31214151#0_0" departPos="5.10" departSpeed="14.22" departDelay="0.71" arrival="203.00" arrivalLane="31152925_1" arrivalPos="73.78" arrivalSpeed="16.55" duration="58.00" routeLength="819.85" waitingTime="0.00" waitingCount="0" stopTime="0.00" timeLoss="21.11" rerouteNo="1" devices="tripinfo_veh58 routing_veh58" vType="veh_passenger" speedFactor="1.02" vaporized=""/>
    <tripinfo id="veh21" depart="53.00" departLane="-39360297_0" departPos="5.10" departSpeed="0.00" departDelay="0.76" arrival="210.00" arrivalLane="-49051151_0" arrivalPos="35.58" arrivalSpeed="12.94" duration="157.00" routeLength="1609.92" waitingTime="30.00" waitingCount="3" stopTime="0.00" timeLoss="76.27" rerouteNo="1" devices="tripinfo_veh21 routing_veh21" vType="veh_passenger" speedFactor="1.01" vaporized=""/>
    <tripinfo id="veh33" depart="83.00" departLane="438519923#0_0" departPos="5.10" departSpeed="3.26" departDelay="0.90" arrival="215.00" arrivalLane="-438775868_0" arrivalPos="83.72" arrivalSpeed="15.98" duration="132.00" routeLength="1441.87" waitingTime="0.00" waitingCount="0" stopTime="0.00" timeLoss="21.99" rerouteNo="1" devices="tripinfo_veh33 routing_veh33" vType="veh_passenger" speedFactor="1.17" vaporized=""/>
    <tripinfo id="veh7" depart="18.00" departLane="554777301#0_0" departPos="5.10" departSpeed="0.00" departDelay="0.59" arrival="219.00" arrivalLane="1090505269#0_0" arrivalPos="205.60" arrivalSpeed="24.37" duration="201.00" routeLength="1413.29" waitingTime="81.00" waitingCount="5" stopTime="0.00" timeLoss="135.27" rerouteNo="1" devices="tripinfo_veh7 routing_veh7" vType="veh_passenger" speedFactor="0.89" vaporized=""/>
    <tripinfo id="veh75" depart="187.00" departLane="-1253903377#2_0" departPos="5.10" departSpeed="13.68" departDelay="0.42" arrival="220.00" arrivalLane="-31939302#1_0" arrivalPos="45.43" arrivalSpeed="15.03" duration="33.00" routeLength="400.99" waitingTime="0.00" waitingCount="0" stopTime="0.00" timeLoss="4.31" rerouteNo="1" devices="tripinfo_veh75 routing_veh75" vType="veh_passenger" speedFactor="0.98" vaporized=""/>
    <tripinfo id="veh38" depart="95.00" departLane="-102400972#1_0" departPos="5.10" departSpeed="15.31" departDelay="0.46" arrival="226.00" arrivalLane="1053511374#2_0" arrivalPos="82.18" arrivalSpeed="8.59" duration="131.00" routeLength="1381.11" waitingTime="0.00" waitingCount="0" stopTime="0.00" timeLoss="29.39" rerouteNo="1" devices="tripinfo_veh38 routing_veh38" vType="veh_passenger" speedFactor="1.10" vaporized=""/>
    <tripinfo id="veh64" depart="160.00" departLane="1253924952#0_0" departPos="5.10" departSpeed="20.83" departDelay="0.78" arrival="227.00" arrivalLane="-1303253946_0" arrivalPos="13.55" arrivalSpeed="10.10" duration="67.00" routeLength="660.17" waitingTime="0.00" waitingCount="0" stopTime="0.00" timeLoss="11.03" rerouteNo="1" devices="tripinfo_veh64 routing_veh64" vType="veh_passenger" speedFactor="0.94" vaporized=""/>
    <tripinfo id="veh25" depart="63.00" departLane="929525132#0_0" departPos="5.10" departSpeed="12.12" departDelay="0.81" arrival="228.00" arrivalLane="1304442753#1_0" arrivalPos="7.09" arrivalSpeed="8.79" duration="165.00" routeLength="1678.57" waitingTime="19.00" waitingCount="2" stopTime="0.00" timeLoss="56.83" rerouteNo="1" devices="tripinfo_veh25 routing_veh25" vType="veh_passenger" speedFactor="0.87" vaporized=""/>
    <tripinfo id="veh42" depart="105.00" departLane="438519924_0" departPos="5.10" departSpeed="15.17" departDelay="0.51" arrival="229.00" arrivalLane="555601731_0" arrivalPos="96.67" arrivalSpeed="14.93" duration="124.00" routeLength="1940.47" waitingTime="2.00" waitingCount="1" stopTime="0.00" timeLoss="43.51" rerouteNo="1" devices="tripinfo_veh42 routing_veh42" vType="veh_passenger" speedFactor="1.09" vaporized=""/>
    <tripinfo id="veh40" depart="100.00" departLane="438519924_0" departPos="5.10" departSpeed="14.31" departDelay="0.49" arrival="231.00" arrivalLane="431825049#5_0" arrivalPos="72.86" arrivalSpeed="22.75" duration="131.00" routeLength="1750.43" waitingTime="0.00" waitingCount="0" stopTime="0.00" timeLoss="22.94" rerouteNo="1" devices="tripinfo_veh40 routing_veh40" vType="veh_passenger" speedFactor="1.03" vaporized=""/>
    <tripinfo id="veh9" depart="23.00" departLane="1237797036#0_0" departPos="5.10" departSpeed="0.00" departDelay="0.61" arrival="234.00" arrivalLane="700820060#0_0" arrivalPos="106.77" arrivalSpeed="11.47" duration="211.00" routeLength="2060.98" waitingTime="39.00" waitingCount="2" stopTime="0.00" timeLoss="79.60" rerouteNo="1" devices="tripinfo_veh9 routing_veh9" vType="veh_passenger" speedFactor="0.86" vaporized=""/>
    <tripinfo id="veh36" depart="90.00" departLane="31290145#1_0" departPos="5.10" departSpeed="0.00" departDelay="0.44" arrival="234.00" arrivalLane="1370700242_0" arrivalPos="51.38" arrivalSpeed="12.53" duration="144.00" routeLength="1653.64" waitingTime="0.00" waitingCount="0" stopTime="0.00" timeLoss="27.45" rerouteNo="1" devices="tripinfo_veh36 routing_veh36" vType="veh_passenger" speedFactor="0.97" vaporized=""/>
    <tripinfo id="veh59" depart="147.00" departLane="776455972_0" departPos="5.10" departSpeed="13.47" departDelay="0.22" arrival="235.00" arrivalLane="-215382413#1_0" arrivalPos="160.21" arrivalSpeed="12.25" duration="88.00" routeLength="1003.85" waitingTime="4.00" waitingCount="1" stopTime="0.00" timeLoss="29.45" rerouteNo="1" devices="tripinfo_veh59 routing_veh59" vType="veh_passenger" speedFactor="0.97" vaporized=""/>
    <tripinfo id="veh27" depart="68.00" departLane="-1189350814_0" departPos="5.10" departSpeed="13.18" departDelay="0.83" arrival="236.00" arrivalLane="1141867890#5_0" arrivalPos="65.34" arrivalSpeed="20.67" duration="168.00" routeLength="1542.29" waitingTime="68.00" waitingCount="3" stopTime="0.00" timeLoss="97.84" rerouteNo="1" devices="tripinfo_veh27 routing_veh27" vType="veh_passenger" speedFactor="0.95" vaporized=""/>
    <tripinfo id="veh29" depart="73.00" departLane="686086899_0" departPos="5.10" departSpeed="0.00" departDelay="0.85" arrival="250.00" arrivalLane="438519919#0_0" arrivalPos="50.54" arrivalSpeed="11.85" duration="177.00" routeLength="1481.92" waitingTime="58.00" waitingCount="4" stopTime="0.00" timeLoss="101.31" rerouteNo="1" devices="tripinfo_veh29 routing_veh29" vType="veh_passenger" speedFactor="0.93" vaporized=""/>
    <tripinfo id="veh43" depart="107.00" departLane="-1303246109_0" departPos="1.70" departSpeed="0.00" departDelay="0.03" arrival="250.00" arrivalLane="1293641200#2_0" arrivalPos="111.40" arrivalSpeed="7.98" duration="143.00" routeLength="877.23" waitingTime="62.00" waitingCount="2" stopTime="0.00" timeLoss="89.85" rerouteNo="1" devices="tripinfo_veh43 routing_veh43" vType="veh_passenger" speedFactor="1.04" vaporized=""/>
    <tripinfo id="veh77" depart="192.00" departLane="1375103128#0_0" departPos="5.10" departSpeed="0.00" departDelay="0.44" arrival="252.00" arrivalLane="22859353#3_0" arrivalPos="73.46" arrivalSpeed="19.54" duration="60.00" routeLength="502.31" waitingTime="7.00" waitingCount="1" stopTime="0.00" timeLoss="30.71" rerouteNo="1" devices="tripinfo_veh77 routing_veh77" vType="veh_passenger" speedFactor="0.98" vaporized=""/>
    <tripinfo id="veh18" depart="45.00" departLane="-206994208#2_0" departPos="5.10" departSpeed="0.00" departDelay="0.22" arrival="253.00" arrivalLane="31217188_0" arrivalPos="92.33" arrivalSpeed="11.83" duration="208.00" routeLength="2144.37" waitingTime="42.00" waitingCount="1" stopTime="0.00" timeLoss="96.09" rerouteNo="1" devices="tripinfo_veh18 routing_veh18" vType="veh_passenger" speedFactor="0.94" vaporized=""/>
    <tripinfo id="veh37" depart="93.00" departLane="366913569_0" departPos="5.10" departSpeed="0.00" departDelay="0.95" arrival="255.00" arrivalLane="1343922581#4_0" arrivalPos="70.87" arrivalSpeed="26.64" duration="162.00" routeLength="2315.11" waitingTime="27.00" waitingCount="3" stopTime="0.00" timeLoss="85.56" rerouteNo="1" devices="tripinfo_veh37 routing_veh37" vType="veh_passenger" speedFactor="1.18" vaporized=""/>
    <tripinfo id="veh15" depart="38.00" departLane="215382430_0" departPos="5.10" departSpeed="2.58" departDelay="0.68" arrival="260.00" arrivalLane="1136964927#1_0" arrivalPos="61.63" arrivalSpeed="25.33" duration="222.00" routeLength="2701.82" waitingTime="35.00" waitingCount="3" stopTime="0.00" timeLoss="92.46" rerouteNo="1" devices="tripinfo_veh15 routing_veh15" vType="veh_passenger" speedFactor="0.93" vaporized=""/>
    <tripinfo id="veh22" depart="55.00" departLane="552505786#3_0" departPos="5.10" departSpeed="0.00" departDelay="0.27" arrival="262.00" arrivalLane="1237797035_0" arrivalPos="24.30" arrivalSpeed="27.03" duration="207.00" routeLength="2020.57" waitingTime="72.00" waitingCount="4" stopTime="0.00" timeLoss="125.61" rerouteNo="1" devices="tripinfo_veh22 routing_veh22" vType="veh_passenger" speedFactor="0.97" vaporized=""/>
    <tripinfo id="veh74" depart="185.00" departLane="1171063692#4_0" departPos="5.10" departSpeed="0.00" departDelay="0.90" arrival="269.00" arrivalLane="437410120#0_0" arrivalPos="41.81" arrivalSpeed="12.02" duration="84.00" routeLength="932.96" waitingTime="15.00" waitingCount="1" stopTime="0.00" timeLoss="38.37" rerouteNo="1" devices="tripinfo_veh74 routing_veh74" vType="veh_passenger" speedFactor="0.96" vaporized=""/>
    <tripinfo id="veh47" depart="117.00" departLane="1237797039#2_0" departPos="5.10" departSpeed="0.00" departDelay="0.07" arrival="271.00" arrivalLane="31217192_0" arrivalPos="81.33" arrivalSpeed="11.59" duration="154.00" routeLength="1167.51" waitingTime="46.00" waitingCount="3" stopTime="0.00" timeLoss="95.54" rerouteNo="1" devices="tripinfo_veh47 routing_veh47" vType="veh_passenger" speedFactor="0.90" vaporized=""/>
    <tripinfo id="veh62" depart="155.00" departLane="-31202210#9_0" departPos="5.10" departSpeed="0.00" departDelay="0.76" arrival="273.00" arrivalLane="553233662#5_0" arrivalPos="8.57" arrivalSpeed="27.50" duration="118.00" routeLength="1618.38" waitingTime="27.00" waitingCount="1" stopTime="0.00" timeLoss="48.20" rerouteNo="1" devices="tripinfo_veh62 routing_veh62" vType="veh_passenger" speedFactor="1.02" vaporized=""/>
    <tripinfo id="veh48" depart="120.00" departLane="925480135#1_0" departPos="5.10" departSpeed="0.00" departDelay="0.59" arrival="275.00" arrivalLane="257411159#3_0" arrivalPos="74.49" arrivalSpeed="18.47" duration="155.00" routeLength="1423.70" waitingTime="62.00" waitingCount="2" stopTime="0.00" timeLoss="90.84" rerouteNo="1" devices="tripinfo_veh48 routing_veh48" vType="veh_passenger" speedFactor="0.88" vaporized=""/>
    <tripinfo id="veh32" depart="80.00" departLane="1101765161#0_0" departPos="5.10" departSpeed="19.34" departDelay="0.39" arrival="276.00" arrivalLane="623418797_0" arrivalPos="73.01" arrivalSpeed="15.62" duration="196.00" routeLength="2660.02" waitingTime="2.00" waitingCount="1" stopTime="0.00" timeLoss="32.20" rerouteNo="1" devices="tripinfo_veh32 routing_veh32" vType="veh_passenger" speedFactor="1.01" vaporized=""/>
    <tripinfo id="veh49" depart="122.00" departLane="1053511374#18_0" departPos="5.10" departSpeed="0.00" departDelay="0.10" arrival="281.00" arrivalLane="1317387797_0" arrivalPos="19.35" arrivalSpeed="10.11" duration="159.00" routeLength="1499.27" waitingTime="14.00" waitingCount="1" stopTime="0.00" timeLoss="54.28" rerouteNo="1" devices="tripinfo_veh49 routing_veh49" vType="veh_passenger" speedFactor="0.85" vaporized=""/>
    <tripinfo id="veh24" depart="60.00" departLane="1293641198#1_0" departPos="5.10" departSpeed="0.00" departDelay="0.29" arrival="287.00" arrivalLane="-438519924_0" arrivalPos="107.82" arrivalSpeed="10.54" duration="227.00" routeLength="2030.80" waitingTime="23.00" waitingCount="3" stopTime="0.00" timeLoss="71.67" rerouteNo="1" devices="tripinfo_veh24 routing_veh24" vType="veh_passenger" speedFactor="0.83" vaporized=""/>
    <tripinfo id="veh45" depart="112.00" departLane="-31217240#1_0" departPos="5.10" departSpeed="4.54" departDelay="0.05" arrival="287.00" arrivalLane="439849605#1_0" arrivalPos="26.03" arrivalSpeed="14.07" duration="175.00" routeLength="1942.08" waitingTime="15.00" waitingCount="2" stopTime="0.00" timeLoss="66.34" rerouteNo="1" devices="tripinfo_veh45 routing_veh45" vType="veh_passenger" speedFactor="1.09" vaporized=""/>
    <tripinfo id="veh70" depart="175.00" departLane="1293641193#0_0" departPos="5.10" departSpeed="0.00" departDelay="0.86" arrival="301.00" arrivalLane="31214579#0_0" arrivalPos="141.82" arrivalSpeed="13.50" duration="126.00" routeLength="951.30" waitingTime="4.00" waitingCount="1" stopTime="0.00" timeLoss="20.10" rerouteNo="1" devices="tripinfo_veh70 routing_veh70" vType="veh_passenger" speedFactor="1.02" vaporized=""/>
    <tripinfo id="veh34" depart="85.00" departLane="552505786#1_0" departPos="5.10" departSpeed="0.00" departDelay="0.42" arrival="305.00" arrivalLane="438519926_0" arrivalPos="23.99" arrivalSpeed="12.44" duration="220.00" routeLength="2233.29" waitingTime="69.00" waitingCount="3" stopTime="0.00" timeLoss="130.04" rerouteNo="1" devices="tripinfo_veh34 routing_veh34" vType="veh_passenger" speedFactor="0.99" vaporized=""/>
    <tripinfo id="veh92" depart="229.00" departLane="215382430_0" departPos="5.10" departSpeed="2.32" departDelay="0.12" arrival="307.00" arrivalLane="-438519924_0" arrivalPos="107.82" arrivalSpeed="10.86" duration="78.00" routeLength="651.96" waitingTime="0.00" waitingCount="0" stopTime="0.00" timeLoss="18.01" rerouteNo="1" devices="tripinfo_veh92 routing_veh92" vType="veh_passenger" speedFactor="0.83" vaporized=""/>
    <tripinfo id="veh20" depart="50.00" departLane="1293641193#3_0" departPos="5.10" departSpeed="0.00" departDelay="0.24" arrival="308.00" arrivalLane="31193315#4_0" arrivalPos="32.37" arrivalSpeed="14.06" duration="258.00" routeLength="2462.05" waitingTime="60.00" waitingCount="4" stopTime="0.00" timeLoss="138.60" rerouteNo="1" devices="tripinfo_veh20 routing_veh20" vType="veh_passenger" speedFactor="1.02" vaporized=""/>
    <tripinfo id="veh14" depart="35.00" departLane="-1253903377#1_0" departPos="5.10" departSpeed="0.00" departDelay="0.17" arrival="311.00" arrivalLane="-437408653_0" arrivalPos="28.64" arrivalSpeed="12.75" duration="276.00" routeLength="2747.15" waitingTime="76.00" waitingCount="3" stopTime="0.00" timeLoss="128.55" rerouteNo="1" devices="tripinfo_veh14 routing_veh14" vType="veh_passenger" speedFactor="0.99" vaporized=""/>
    <tripinfo id="veh60" depart="150.00" departLane="437410114_0" departPos="5.10" departSpeed="15.04" departDelay="0.73" arrival="315.00" arrivalLane="-438515747#0_0" arrivalPos="20.83" arrivalSpeed="2.70" duration="165.00" routeLength="1889.10" waitingTime="12.00" waitingCount="2" stopTime="0.00" timeLoss="53.09" rerouteNo="1" devices="tripinfo_veh60 routing_veh60" vType="veh_passenger" speedFactor="1.08" vaporized=""/>
    <tripinfo id="veh54" depart="135.00" departLane="553233662#5_0" departPos="5.10" departSpeed="0.00" departDelay="0.66" arrival="321.00" arrivalLane="151357385#2_0" arrivalPos="0.20" arrivalSpeed="5.14" duration="186.00" routeLength="1744.37" waitingTime="57.00" waitingCount="1" stopTime="0.00" timeLoss="86.41" rerouteNo="1" devices="tripinfo_veh54 routing_veh54" vType="veh_passenger" speedFactor="1.00" vaporized=""/>
    <tripinfo id="veh90" depart="224.00" departLane="1011936102#0_0" departPos="5.10" departSpeed="28.24" departDelay="0.10" arrival="324.00" arrivalLane="-553181888#4_0" arrivalPos="76.47" arrivalSpeed="17.68" duration="100.00" routeLength="1043.76" waitingTime="42.00" waitingCount="1" stopTime="0.00" timeLoss="58.06" rerouteNo="1" devices="tripinfo_veh90 routing_veh90" vType="veh_passenger" speedFactor="1.02" vaporized=""/>
    <tripinfo id="veh23" depart="58.00" departLane="-31217240#1_0" departPos="5.10" departSpeed="3.71" departDelay="0.78" arrival="328.00" arrivalLane="-437410115_0" arrivalPos="90.25" arrivalSpeed="11.94" duration="270.00" routeLength="2391.49" waitingTime="63.00" waitingCount="3" stopTime="0.00" timeLoss="116.16" rerouteNo="1" devices="tripinfo_veh23 routing_veh23" vType="veh_passenger" speedFactor="0.89" vaporized=""/>
    <tripinfo id="veh65" depart="162.00" departLane="929525132#1_0" departPos="5.10" departSpeed="0.00" departDelay="0.29" arrival="330.00" arrivalLane="434887982#1_0" arrivalPos="67.72" arrivalSpeed="2.02" duration="168.00" routeLength="1094.88" waitingTime="51.00" waitingCount="1" stopTime="0.00" timeLoss="91.55" rerouteNo="1" devices="tripinfo_veh65 routing_veh65" vType="veh_passenger" speedFactor="0.88" vaporized=""/>
    <tripinfo id="veh56" depart="140.00" departLane="39480556#0_0" departPos="5.10" departSpeed="19.97" departDelay="0.68" arrival="341.00" arrivalLane="-39357306#1_0" arrivalPos="79.06" arrivalSpeed="11.75" duration="201.00" routeLength="2657.07" waitingTime="23.00" waitingCount="1" stopTime="0.00" timeLoss="52.10" rerouteNo="1" devices="tripinfo_veh56 routing_veh56" vType="veh_passenger" speedFactor="0.90" vaporized=""/>
    <tripinfo id="veh99" depart="247.00" departLane="-31202210#9_0" departPos="5.10" departSpeed="0.00" departDelay="0.71" arrival="341.00" arrivalLane="-215382430_0" arrivalPos="53.63" arrivalSpeed="2.10" duration="94.00" routeLength="939.34" waitingTime="0.00" waitingCount="0" stopTime="0.00" timeLoss="17.07" rerouteNo="1" devices="tripinfo_veh99 routing_veh99" vType="veh_passenger" speedFactor="1.10" vaporized=""/>
    <tripinfo id="veh5" depart="13.00" departLane="39530455_0" departPos="5.10" departSpeed="11.54" departDelay="0.56" arrival="347.00" arrivalLane="-1134587608#1_0" arrivalPos="18.21" arrivalSpeed="9.32" duration="334.00" routeLength="3330.80" waitingTime="32.00" waitingCount="2" stopTime="0.00" timeLoss="84.37" rerouteNo="1" devices="tripinfo_veh5 routing_veh5" vType="veh_passenger" speedFactor="0.83" vaporized=""/>